 &FCI NORB=22 ,NELEC=6 ,MS2=2,
  ORBSYM=1,5,3,2,5,1,3,2,6,7,1,4,1,5,1,6,7,3,2,1,4,1,
  ISYM=1,
 &END
  7.907952209331e-01    1  1  1  1
  1.607472411540e-01    2  1  2  1
  7.559336840250e-01    2  2  1  1
  7.776558709737e-01    2  2  2  2
  1.672087606610e-01    3  1  3  1
  3.996891938857e-02    3  2  3  2
  7.796886020716e-01    3  3  1  1
  7.220301373226e-01    3  3  2  2
  8.280695700531e-01    3  3  3  3
  1.672087606611e-01    4  1  4  1
  3.996891938860e-02    4  2  4  2
  4.163128092042e-02    4  3  4  3
  7.796886020721e-01    4  4  1  1
  7.220301373231e-01    4  4  2  2
  7.448070082129e-01    4  4  3  3
  8.280695700543e-01    4  4  4  4
  5.738946664924e-02    5  1  2  1
  4.400670435838e-02    5  1  5  1
  2.093521704237e-01    5  2  1  1
  2.143547945952e-01    5  2  2  2
  2.017258246890e-01    5  2  3  3
  2.017258246893e-01    5  2  4  4
  1.444073178911e-01    5  2  5  2
  1.455206190588e-02    5  3  3  2
  1.548539662324e-02    5  3  5  3
  1.455206190594e-02    5  4  4  2
  1.548539662326e-02    5  4  5  4
  5.754347011588e-01    5  5  1  1
  5.936956038540e-01    5  5  2  2
  5.596351877787e-01    5  5  3  3
  5.596351877790e-01    5  5  4  4
  1.302284183545e-01    5  5  5  2
  5.007465554510e-01    5  5  5  5
 -1.504736072067e-01    6  1  1  1
 -1.219062430593e-01    6  1  2  2
 -1.578604893851e-01    6  1  3  3
 -1.578604893854e-01    6  1  4  4
 -8.587103582318e-02    6  1  5  2
 -7.476583206790e-02    6  1  5  5
  7.397615269260e-02    6  1  6  1
  1.169127211551e-02    6  2  2  1
 -2.525328300429e-02    6  2  5  1
  4.095294052207e-02    6  2  6  2
 -5.501762136992e-02    6  3  3  1
  4.104783414148e-02    6  3  6  3
 -5.501762137012e-02    6  4  4  1
  4.104783414154e-02    6  4  6  4
 -8.719906847492e-02    6  5  2  1
 -1.031294427321e-02    6  5  5  1
 -3.468432757217e-02    6  5  6  2
  8.329255759819e-02    6  5  6  5
  5.504607826382e-01    6  6  1  1
  5.384560411914e-01    6  6  2  2
  5.434014101516e-01    6  6  3  3
  5.434014101518e-01    6  6  4  4
  8.185341401334e-02    6  6  5  2
  4.549210289319e-01    6  6  5  5
 -6.039777705777e-02    6  6  6  1
  4.521212790793e-01    6  6  6  6
  4.977650748368e-02    7  1  3  1
 -3.872088070128e-02    7  1  6  3
  3.970529376843e-02    7  1  7  1
  1.083219629161e-02    7  2  3  2
  1.484863426269e-02    7  2  5  3
  1.461498421111e-02    7  2  7  2
  1.962192856635e-01    7  3  1  1
  1.781679333372e-01    7  3  2  2
  2.158411101482e-01    7  3  3  3
  1.901054608997e-01    7  3  4  4
  1.109868390654e-01    7  3  5  2
  1.158592306301e-01    7  3  5  5
 -8.815763449381e-02    7  3  6  1
  8.819311751245e-02    7  3  6  6
  1.377728776994e-01    7  3  7  3
  1.286782462448e-02    7  4  4  3
  1.475861605730e-02    7  4  7  4
  2.397456002994e-02    7  5  3  2
  4.551466385419e-03    7  5  5  3
  1.817935819891e-03    7  5  7  2
  2.309354440782e-02    7  5  7  5
 -9.136876941947e-02    7  6  3  1
  1.536843255748e-02    7  6  6  3
 -1.392761490426e-02    7  6  7  1
  7.065903483778e-02    7  6  7  6
  5.740269286279e-01    7  7  1  1
  5.448836822219e-01    7  7  2  2
  6.067456122425e-01    7  7  3  3
  5.582519575132e-01    7  7  4  4
  1.177642990788e-01    7  7  5  2
  4.553427801467e-01    7  7  5  5
 -8.536602460894e-02    7  7  6  1
  4.461953089157e-01    7  7  6  6
  1.158978262775e-01    7  7  7  3
  5.038561441750e-01    7  7  7  7
  4.977650747754e-02    8  1  4  1
 -3.872088071499e-02    8  1  6  4
  3.970529380261e-02    8  1  8  1
  1.083219629039e-02    8  2  4  2
  1.484863426913e-02    8  2  5  4
  1.461498422495e-02    8  2  8  2
  1.286782462382e-02    8  3  4  3
  1.475861606465e-02    8  3  7  4
  1.475861607200e-02    8  3  8  3
  1.962192856835e-01    8  4  1  1
  1.781679333596e-01    8  4  2  2
  1.901054609257e-01    8  4  3  3
  2.158411101738e-01    8  4  4  4
  1.109868391052e-01    8  4  5  2
  1.158592306471e-01    8  4  5  5
 -8.815763452395e-02    8  4  6  1
  8.819311751010e-02    8  4  6  6
  1.082556456257e-01    8  4  7  3
  1.109795083083e-01    8  4  7  7
  1.377728778107e-01    8  4  8  4
  2.397456004008e-02    8  5  4  2
  4.551466391307e-03    8  5  5  4
  1.817935825338e-03    8  5  8  2
  2.309354441608e-02    8  5  8  5
 -9.136876945177e-02    8  6  4  1
  1.536843256963e-02    8  6  6  4
 -1.392761490863e-02    8  6  8  1
  7.065903486564e-02    8  6  8  6
  2.424682737666e-02    8  7  4  3
  2.459158995735e-03    8  7  7  4
  2.459158995382e-03    8  7  8  3
  2.376408542234e-02    8  7  8  7
  5.740269289939e-01    8  8  1  1
  5.448836825580e-01    8  8  2  2
  5.582519578647e-01    8  8  3  3
  6.067456126420e-01    8  8  4  4
  1.177642992189e-01    8  8  5  2
  4.553427803789e-01    8  8  5  5
 -8.536602471068e-02    8  8  6  1
  4.461953091264e-01    8  8  6  6
  1.109795084275e-01    8  8  7  3
  4.563279735870e-01    8  8  7  7
  1.158978264406e-01    8  8  8  4
  5.038561446883e-01    8  8  8  8
 -5.069482024300e-02    9  1  4  2
 -1.418809753889e-02    9  1  5  4
 -9.311147451281e-03    9  1  8  2
 -2.745082807777e-02    9  1  8  5
  6.984518769358e-02    9  1  9  1
 -1.141306437583e-01    9  2  4  1
  2.409334567186e-02    9  2  6  4
 -2.510978197874e-02    9  2  8  1
  6.452698890384e-02    9  2  8  6
  1.054393317882e-01    9  2  9  2
  1.514318054807e-02    9  3  9  3
 -1.137556898737e-01    9  4  2  1
 -3.365349478476e-02    9  4  5  1
 -1.152451835448e-02    9  4  6  2
  6.452277073210e-02    9  4  6  5
  1.077412841998e-01    9  4  9  4
 -2.348496484386e-02    9  5  4  1
  2.085535837148e-02    9  5  6  4
 -2.140304297298e-02    9  5  8  1
  1.455792312849e-03    9  5  8  6
  1.537272832080e-02    9  5  9  2
  1.799963818332e-02    9  5  9  5
  1.095083603796e-03    9  6  4  2
  1.148303187254e-02    9  6  5  4
  1.219674119708e-02    9  6  8  2
 -4.927394590509e-03    9  6  8  5
  1.587683044431e-03    9  6  9  1
  1.567971889816e-02    9  6  9  6
  1.350806549111e-03    9  7  9  3
  3.517327837021e-03    9  7  9  7
 -1.397373432900e-02    9  8  2  1
 -2.053896913288e-02    9  8  5  1
  1.911223121081e-02    9  8  6  2
 -6.807079830699e-03    9  8  6  5
  8.077660559481e-03    9  8  9  4
  1.778282090373e-02    9  8  9  8
  7.156614406932e-01    9  9  1  1
  7.017863325196e-01    9  9  2  2
  6.628022112023e-01    9  9  3  3
  7.199422356640e-01    9  9  4  4
  1.544172707045e-01    9  9  5  2
  5.339234501384e-01    9  9  5  5
 -1.011132985397e-01    9  9  6  1
  5.215805615992e-01    9  9  6  6
  1.327983818680e-01    9  9  7  3
  5.052232332431e-01    9  9  7  7
  1.405300580001e-01    9  9  8  4
  5.361691933028e-01    9  9  8  8
  7.274311304965e-01    9  9  9  9
 -5.069482024218e-02    10  1  3  2
 -1.418809753814e-02    10  1  5  3
 -9.311147457346e-03    10  1  7  2
 -2.745082806622e-02    10  1  7  5
  6.984518769159e-02    10  1  10  1
 -1.141306437568e-01    10  2  3  1
  2.409334567063e-02    10  2  6  3
 -2.510978198978e-02    10  2  7  1
  6.452698888011e-02    10  2  7  6
  1.054393317860e-01    10  2  10  2
 -1.137556898722e-01    10  3  2  1
 -3.365349478350e-02    10  3  5  1
 -1.152451835535e-02    10  3  6  2
  6.452277073200e-02    10  3  6  5
  7.745492310279e-02    10  3  9  4
  5.376047469662e-03    10  3  9  8
  1.077412841973e-01    10  3  10  3
  1.514318054788e-02    10  4  9  3
  1.350806548935e-03    10  4  9  7
  1.514318054768e-02    10  4  10  4
 -2.348496484091e-02    10  5  3  1
  2.085535837117e-02    10  5  6  3
 -2.140304296340e-02    10  5  7  1
  1.455792306284e-03    10  5  7  6
  1.537272831722e-02    10  5  10  2
  1.799963818322e-02    10  5  10  5
  1.095083602651e-03    10  6  3  2
  1.148303187255e-02    10  6  5  3
  1.219674118968e-02    10  6  7  2
 -4.927394592189e-03    10  6  7  5
  1.587683046456e-03    10  6  10  1
  1.567971889904e-02    10  6  10  6
 -1.397373435229e-02    10  7  2  1
 -2.053896912751e-02    10  7  5  1
  1.911223119382e-02    10  7  6  2
 -6.807079810692e-03    10  7  6  5
  5.376047489768e-03    10  7  9  4
  1.074816521453e-02    10  7  9  8
  8.077660586410e-03    10  7  10  3
  1.778282088267e-02    10  7  10  7
  1.350806544296e-03    10  8  9  3
  3.517327839334e-03    10  8  9  7
  1.350806544120e-03    10  8  10  4
  3.517327841647e-03    10  8  10  8
  2.857001223036e-02    10  9  4  3
  3.865838072718e-03    10  9  7  4
  3.865838067241e-03    10  9  8  3
  1.547297987833e-02    10  9  8  7
  3.553597947444e-02    10  9  10  9
  7.156614406821e-01    10  10  1  1
  7.017863325091e-01    10  10  2  2
  7.199422356524e-01    10  10  3  3
  6.628022111927e-01    10  10  4  4
  1.544172706979e-01    10  10  5  2
  5.339234501327e-01    10  10  5  5
 -1.011132985350e-01    10  10  6  1
  5.215805615950e-01    10  10  6  6
  1.405300580076e-01    10  10  7  3
  5.361691929796e-01    10  10  7  7
  1.327983818599e-01    10  10  8  4
  5.052232335260e-01    10  10  8  8
  6.563591715382e-01    10  10  9  9
  7.274311304777e-01    10  10  10  10
  5.301187410879e-02    11  1  1  1
  1.044969063015e-01    11  1  2  2
  2.380561709378e-02    11  1  3  3
  2.380561709387e-02    11  1  4  4
  4.682362998585e-02    11  1  5  2
  6.012313738350e-02    11  1  5  5
 -3.871718632013e-03    11  1  6  1
  2.723801234319e-02    11  1  6  6
  2.480939293318e-02    11  1  7  3
  1.299074853449e-02    11  1  7  7
  2.480939294811e-02    11  1  8  4
  1.299074855373e-02    11  1  8  8
  5.987067912122e-02    11  1  9  9
  5.987067911905e-02    11  1  10  10
  7.316303265565e-02    11  1  11  1
  1.340682587653e-01    11  2  2  1
  4.964168909058e-02    11  2  5  1
  1.423311255189e-02    11  2  6  2
 -6.572201138619e-02    11  2  6  5
 -8.077319302378e-02    11  2  9  4
 -1.244734670477e-02    11  2  9  8
 -8.077319302256e-02    11  2  10  3
 -1.244734671986e-02    11  2  10  7
  1.382509039117e-01    11  2  11  2
 -5.194840797922e-02    11  3  3  1
  1.094499939951e-02    11  3  6  3
 -2.535929546627e-03    11  3  7  1
  3.412673841928e-02    11  3  7  6
  2.043381235010e-02    11  3  10  2
 -3.635548585456e-03    11  3  10  5
  3.971020225500e-02    11  3  11  3
 -5.194840797916e-02    11  4  4  1
  1.094499939957e-02    11  4  6  4
 -2.535929534412e-03    11  4  8  1
  3.412673842619e-02    11  4  8  6
  2.043381234991e-02    11  4  9  2
 -3.635548584737e-03    11  4  9  5
  3.971020225494e-02    11  4  11  4
  6.045026433594e-02    11  5  2  1
  3.165091358197e-02    11  5  5  1
 -7.222539494198e-03    11  5  6  2
 -2.503530544061e-02    11  5  6  5
 -3.654480657690e-02    11  5  9  4
 -8.728598616765e-03    11  5  9  8
 -3.654480657620e-02    11  5  10  3
 -8.728598620094e-03    11  5  10  7
  5.563532483564e-02    11  5  11  2
  3.371723436412e-02    11  5  11  5
  4.269838354155e-02    11  6  1  1
  4.125302498427e-02    11  6  2  2
  3.874776908140e-02    11  6  3  3
  3.874776908144e-02    11  6  4  4
  3.665634367718e-03    11  6  5  2
  2.359829705692e-02    11  6  5  5
 -7.718614722453e-03    11  6  6  1
  2.938288654117e-02    11  6  6  6
  1.755860509641e-02    11  6  7  3
  1.499718578356e-02    11  6  7  7
  1.755860509748e-02    11  6  8  4
  1.499718580588e-02    11  6  8  8
  4.055358086575e-02    11  6  9  9
  4.055358086504e-02    11  6  10  10
  8.848537076735e-03    11  6  11  1
  1.814798467481e-02    11  6  11  6
  2.255870487981e-02    11  7  3  1
  6.727318598667e-03    11  7  6  3
 -7.212307961153e-03    11  7  7  1
 -2.367199584624e-02    11  7  7  6
 -2.114009918976e-02    11  7  10  2
  1.581832024021e-03    11  7  10  5
 -1.166634454260e-02    11  7  11  3
  1.682234084494e-02    11  7  11  7
  2.255870490987e-02    11  8  4  1
  6.727318595898e-03    11  8  6  4
 -7.212307971223e-03    11  8  8  1
 -2.367199586729e-02    11  8  8  6
 -2.114009920809e-02    11  8  9  2
  1.581832022741e-03    11  8  9  5
 -1.166634456164e-02    11  8  11  4
  1.682234086800e-02    11  8  11  8
 -1.749370091494e-02    11  9  4  2
 -7.909044199641e-03    11  9  5  4
 -6.464886814189e-03    11  9  8  2
 -7.401705055380e-03    11  9  8  5
  2.373502026657e-02    11  9  9  1
  1.895838572633e-03    11  9  9  6
  2.541996864315e-02    11  9  11  9
 -1.749370091432e-02    11  10  3  2
 -7.909044199431e-03    11  10  5  3
 -6.464886814547e-03    11  10  7  2
 -7.401705051121e-03    11  10  7  5
  2.373502026527e-02    11  10  10  1
  1.895838572942e-03    11  10  10  6
  2.541996864226e-02    11  10  11  10
  7.119788156658e-01    11  11  1  1
  7.190061119616e-01    11  11  2  2
  6.774697022634e-01    11  11  3  3
  6.774697022638e-01    11  11  4  4
  1.691645767824e-01    11  11  5  2
  5.409788872514e-01    11  11  5  5
 -9.570289234536e-02    11  11  6  1
  5.180417862801e-01    11  11  6  6
  1.318595946276e-01    11  11  7  3
  5.164778825426e-01    11  11  7  7
  1.318595946206e-01    11  11  8  4
  5.164778828394e-01    11  11  8  8
  6.706249656298e-01    11  11  9  9
  6.706249656210e-01    11  11  10  10
  8.334308441609e-02    11  11  11  1
  4.418623046325e-02    11  11  11  6
  7.164238546978e-01    11  11  11  11
 -5.144400818614e-02    12  1  4  3
 -1.072317589853e-02    12  1  7  4
 -1.072317589210e-02    12  1  8  3
 -2.769018954241e-02    12  1  8  7
 -4.014132877392e-02    12  1  10  9
  6.961166027377e-02    12  1  12  1
  1.494810853398e-02    12  2  9  3
  1.162257751721e-03    12  2  9  7
  1.494810853380e-02    12  2  10  4
  1.162257746834e-03    12  2  10  8
  1.476426656140e-02    12  2  12  2
 -1.155250535025e-01    12  3  4  1
  3.312962695751e-02    12  3  6  4
 -2.618281108211e-02    12  3  8  1
  6.454616553339e-02    12  3  8  6
  7.657499127373e-02    12  3  9  2
  1.123169973510e-02    12  3  9  5
  4.543977103647e-02    12  3  11  4
 -1.825117457499e-02    12  3  11  8
  1.075438967306e-01    12  3  12  3
 -1.155250535024e-01    12  4  3  1
  3.312962695744e-02    12  4  6  3
 -2.618281109395e-02    12  4  7  1
  6.454616551253e-02    12  4  7  6
  7.657499127296e-02    12  4  10  2
  1.123169973315e-02    12  4  10  5
  4.543977103649e-02    12  4  11  3
 -1.825117454948e-02    12  4  11  7
  1.075438967306e-01    12  4  12  4
  2.493907500066e-03    12  5  9  3
  3.452196080320e-03    12  5  9  7
  2.493907499883e-03    12  5  10  4
  3.452196082116e-03    12  5  10  8
  2.298693694878e-03    12  5  12  2
  3.482945093815e-03    12  5  12  5
  1.680195027379e-02    12  6  4  3
  1.314906956347e-02    12  6  7  4
  1.314906956780e-02    12  6  8  3
  2.971150160477e-03    12  6  8  7
  6.466127572647e-03    12  6  10  9
 -1.986386015244e-02    12  6  12  1
  1.648444873899e-02    12  6  12  6
 -1.484764180827e-02    12  7  4  1
  2.001782170471e-02    12  7  6  4
 -2.030561144304e-02    12  7  8  1
 -1.699258082049e-03    12  7  8  6
  4.674993156168e-03    12  7  9  2
  1.065161525069e-02    12  7  9  5
 -2.998385074828e-03    12  7  11  4
  9.056050490258e-03    12  7  11  8
  7.798087185325e-03    12  7  12  3
  1.781899117858e-02    12  7  12  7
 -1.484764178217e-02    12  8  3  1
  2.001782170873e-02    12  8  6  3
 -2.030561143944e-02    12  8  7  1
 -1.699258104759e-03    12  8  7  6
  4.674993133895e-03    12  8  10  2
  1.065161525495e-02    12  8  10  5
 -2.998385092423e-03    12  8  11  3
  9.056050497212e-03    12  8  11  7
  7.798087154735e-03    12  8  12  4
  1.781899120026e-02    12  8  12  8
  2.817314532454e-02    12  9  3  2
  5.865927811823e-03    12  9  5  3
  3.040293193804e-03    12  9  7  2
  1.518733154415e-02    12  9  7  5
 -4.016533316306e-02    12  9  10  1
 -1.551895441171e-03    12  9  10  6
 -8.225098807578e-03    12  9  11  10
  3.548938434875e-02    12  9  12  9
  2.817314532422e-02    12  10  4  2
  5.865927811523e-03    12  10  5  4
  3.040293187876e-03    12  10  8  2
  1.518733155020e-02    12  10  8  5
 -4.016533316314e-02    12  10  9  1
 -1.551895440618e-03    12  10  9  6
 -8.225098807784e-03    12  10  11  9
  3.548938434817e-02    12  10  12  10
  2.943522826029e-02    12  11  4  3
  1.123081920746e-04    12  11  7  4
  1.123081836944e-04    12  11  8  3
  1.802984908012e-02    12  11  8  7
  1.617212357776e-02    12  11  10  9
 -4.272371229934e-02    12  11  12  1
  9.090670819115e-03    12  11  12  6
  3.800883985561e-02    12  11  12  11
  7.147248368748e-01    12  12  1  1
  6.453096876850e-01    12  12  2  2
  7.190582639780e-01    12  12  3  3
  7.190582639783e-01    12  12  4  4
  1.438357088590e-01    12  12  5  2
  5.032726773438e-01    12  12  5  5
 -1.221722756097e-01    12  12  6  1
  5.142859725165e-01    12  12  6  6
  1.400298419407e-01    12  12  7  3
  5.357483785108e-01    12  12  7  7
  1.400298419267e-01    12  12  8  4
  5.357483788282e-01    12  12  8  8
  6.557083350587e-01    12  12  9  9
  6.557083350505e-01    12  12  10  10
 -6.856089643293e-03    12  12  11  1
  3.626779203530e-02    12  12  11  6
  6.414531111663e-01    12  12  11  11
  7.259464325358e-01    12  12  12  12
  5.144396241760e-02    13  1  3  3
 -5.144396241762e-02    13  1  4  4
  1.072314036001e-02    13  1  7  3
  2.769018009586e-02    13  1  7  7
 -1.072314035366e-02    13  1  8  4
 -2.769018012264e-02    13  1  8  8
 -4.014130289021e-02    13  1  9  9
  4.014130288942e-02    13  1  10  10
  6.961155357122e-02    13  1  13  1
  1.494809920898e-02    13  2  9  4
  1.162248005524e-03    13  2  9  8
 -1.494809920880e-02    13  2  10  3
 -1.162248009772e-03    13  2  10  7
  1.476424905990e-02    13  2  13  2
  1.155249672419e-01    13  3  3  1
 -3.312956203715e-02    13  3  6  3
  2.618274899807e-02    13  3  7  1
 -6.454614455218e-02    13  3  7  6
 -7.657494667500e-02    13  3  10  2
 -1.123166778536e-02    13  3  10  5
 -4.543975893195e-02    13  3  11  3
  1.825119064874e-02    13  3  11  7
 -6.220490168603e-02    13  3  12  4
 -3.864025275157e-03    13  3  12  8
  1.075437636645e-01    13  3  13  3
 -1.155249672420e-01    13  4  4  1
  3.312956203728e-02    13  4  6  4
 -2.618274898630e-02    13  4  8  1
  6.454614457301e-02    13  4  8  6
  7.657494667575e-02    13  4  9  2
  1.123166778735e-02    13  4  9  5
  4.543975893189e-02    13  4  11  4
 -1.825119067421e-02    13  4  11  8
  6.220490168603e-02    13  4  12  3
  3.864025292248e-03    13  4  12  7
  1.075437636645e-01    13  4  13  4
  2.493890563041e-03    13  5  9  4
  3.452198039849e-03    13  5  9  8
 -2.493890562847e-03    13  5  10  3
 -3.452198038105e-03    13  5  10  7
  2.298666740644e-03    13  5  13  2
  3.482946368433e-03    13  5  13  5
 -1.680188556008e-02    13  6  3  3
  1.680188556012e-02    13  6  4  4
 -1.314906493212e-02    13  6  7  3
 -2.971096021325e-03    13  6  7  7
  1.314906493646e-02    13  6  8  4
  2.971096027997e-03    13  6  8  8
  6.466081121873e-03    13  6  9  9
 -6.466081121159e-03    13  6  10  10
 -1.986373584950e-02    13  6  13  1
  1.648442184901e-02    13  6  13  6
  1.484748754260e-02    13  7  3  1
 -2.001779931301e-02    13  7  6  3
  2.030559490497e-02    13  7  7  1
  1.699376386965e-03    13  7  7  6
 -4.674888354372e-03    13  7  10  2
 -1.065161332620e-02    13  7  10  5
  2.998452139100e-03    13  7  11  3
 -9.056096237522e-03    13  7  11  7
 -3.863957018521e-03    13  7  12  4
 -7.242597340669e-03    13  7  12  8
  7.797899363443e-03    13  7  13  3
  1.781901575743e-02    13  7  13  7
 -1.484748751657e-02    13  8  4  1
  2.001779931703e-02    13  8  6  4
 -2.030559492297e-02    13  8  8  1
 -1.699376401991e-03    13  8  8  6
  4.674888333228e-03    13  8  9  2
  1.065161333028e-02    13  8  9  5
 -2.998452156665e-03    13  8  11  4
  9.056096253833e-03    13  8  11  8
  3.863957001430e-03    13  8  12  3
  7.242597340669e-03    13  8  12  7
  7.797899332853e-03    13  8  13  4
  1.781901577911e-02    13  8  13  8
  2.817312852772e-02    13  9  4  2
  5.865910659159e-03    13  9  5  4
  3.040276674979e-03    13  9  8  2
  1.518733064393e-02    13  9  8  5
 -4.016531171711e-02    13  9  9  1
 -1.551911768022e-03    13  9  9  6
 -8.225089141615e-03    13  9  11  9
  1.477482948855e-02    13  9  12  10
  3.548935288340e-02    13  9  13  9
 -2.817312852741e-02    13  10  3  2
 -5.865910658813e-03    13  10  5  3
 -3.040276680283e-03    13  10  7  2
 -1.518733063786e-02    13  10  7  5
  4.016531171623e-02    13  10  10  1
  1.551911769192e-03    13  10  10  6
  8.225089141047e-03    13  10  11  10
 -1.477482948855e-02    13  10  12  9
  3.548935288282e-02    13  10  13  10
 -2.943522895642e-02    13  11  3  3
  2.943522895641e-02    13  11  4  4
 -1.122897932132e-04    13  11  7  3
 -1.802986749452e-02    13  11  7  7
  1.122897848905e-04    13  11  8  4
  1.802986751056e-02    13  11  8  8
  1.617213257014e-02    13  11  9  9
 -1.617213257012e-02    13  11  10  10
 -4.272369728925e-02    13  11  13  1
  9.090595705636e-03    13  11  13  6
  3.800885414462e-02    13  11  13  11
  2.068590003859e-02    13  12  13  12
  7.147242464533e-01    13  13  1  1
  6.453091940074e-01    13  13  2  2
  7.190576693017e-01    13  13  3  3
  7.190576693020e-01    13  13  4  4
  1.438354279234e-01    13  13  5  2
  5.032723812551e-01    13  13  5  5
 -1.221720099058e-01    13  13  6  1
  5.142857104564e-01    13  13  6  6
  1.400295055750e-01    13  13  7  3
  5.357480954563e-01    13  13  7  7
  1.400295055610e-01    13  13  8  4
  5.357480957736e-01    13  13  8  8
  6.557078970995e-01    13  13  9  9
  6.557078970913e-01    13  13  10  10
 -6.856131243855e-03    13  13  11  1
  3.626771111900e-02    13  13  11  6
  6.414527080725e-01    13  13  11  11
  6.845741338253e-01    13  13  12  12
  7.259454352705e-01    13  13  13  13
  2.664484412653e-03    14  1  2  1
 -1.166802815765e-02    14  1  5  1
  1.543400322527e-02    14  1  6  2
 -8.669826486712e-03    14  1  6  5
 -6.437896177846e-03    14  1  9  4
  7.758898249454e-03    14  1  9  8
 -6.437896178172e-03    14  1  10  3
  7.758898240702e-03    14  1  10  7
  2.365898531531e-03    14  1  11  2
 -5.165721875382e-03    14  1  11  5
  7.837520085062e-03    14  1  14  1
 -1.323495082509e-02    14  2  1  1
 -1.308670886280e-02    14  2  2  2
 -1.710843060406e-02    14  2  3  3
 -1.710843060416e-02    14  2  4  4
 -3.639703127362e-02    14  2  5  2
 -1.067221137745e-02    14  2  5  5
  2.341846706043e-02    14  2  6  1
  9.700164561022e-03    14  2  6  6
 -2.753019722857e-02    14  2  7  3
 -7.907461940186e-03    14  2  7  7
 -2.753019724764e-02    14  2  8  4
 -7.907461955322e-03    14  2  8  8
  9.014926603999e-03    14  2  9  9
  9.014926605387e-03    14  2  10  10
 -3.968158887995e-03    14  2  11  1
  7.313098923680e-03    14  2  11  6
  4.943152308578e-03    14  2  11  11
  2.274268221448e-03    14  2  12  12
  2.274323874115e-03    14  2  13  13
  1.944113530187e-02    14  2  14  2
  1.563448146098e-04    14  3  3  2
 -5.017103867874e-03    14  3  5  3
 -5.331280221875e-03    14  3  7  2
  7.443097068913e-05    14  3  7  5
 -3.563765425637e-03    14  3  10  1
 -5.494922025513e-03    14  3  10  6
  1.316564286719e-04    14  3  11  10
  3.258683799613e-03    14  3  12  9
 -3.258688402316e-03    14  3  13  10
  3.310469349354e-03    14  3  14  3
  1.563448145775e-04    14  4  4  2
 -5.017103867875e-03    14  4  5  4
 -5.331280226863e-03    14  4  8  2
  7.443097098599e-05    14  4  8  5
 -3.563765425432e-03    14  4  9  1
 -5.494922025349e-03    14  4  9  6
  1.316564286734e-04    14  4  11  9
  3.258683799686e-03    14  4  12  10
  3.258688402213e-03    14  4  13  9
  3.310469349352e-03    14  4  14  4
 -1.256882436124e-01    14  5  1  1
 -1.309084364034e-01    14  5  2  2
 -1.210776394651e-01    14  5  3  3
 -1.210776394653e-01    14  5  4  4
 -5.403520149418e-02    14  5  5  2
 -8.999923779509e-02    14  5  5  5
  2.991253988330e-02    14  5  6  1
 -7.572971272417e-02    14  5  6  6
 -4.519953076341e-02    14  5  7  3
 -8.102597531805e-02    14  5  7  7
 -4.519953077179e-02    14  5  8  4
 -8.102597540388e-02    14  5  8  8
 -1.086645488661e-01    14  5  9  9
 -1.086645488639e-01    14  5  10  10
 -2.137466660156e-02    14  5  11  1
 -8.578519756750e-03    14  5  11  6
 -1.113003666155e-01    14  5  11  11
 -9.890852908187e-02    14  5  12  12
 -9.890841785352e-02    14  5  13  13
  4.268455437026e-03    14  5  14  2
  3.670396652291e-02    14  5  14  5
  3.739418011900e-02    14  6  2  1
  7.029956060612e-03    14  6  5  1
  1.151517308733e-02    14  6  6  2
 -2.535897004529e-02    14  6  6  5
 -2.694467161855e-02    14  6  9  4
  1.119761573431e-03    14  6  9  8
 -2.694467161841e-02    14  6  10  3
  1.119761564171e-03    14  6  10  7
  3.198892856066e-02    14  6  11  2
  9.701160197519e-03    14  6  11  5
  4.779686597576e-03    14  6  14  1
  1.461938124912e-02    14  6  14  6
 -8.621394468766e-03    14  7  3  2
 -2.910280769138e-03    14  7  5  3
 -2.067263706316e-03    14  7  7  2
 -5.649753374027e-03    14  7  7  5
  1.005833842840e-02    14  7  10  1
  1.234638633069e-03    14  7  10  6
  2.918640052143e-03    14  7  11  10
 -5.615648639088e-03    14  7  12  9
  5.615647754361e-03    14  7  13  10
 -5.298491535434e-04    14  7  14  3
  3.597287451243e-03    14  7  14  7
 -8.621394482685e-03    14  8  4  2
 -2.910280765533e-03    14  8  5  4
 -2.067263699247e-03    14  8  8  2
 -5.649753398534e-03    14  8  8  5
  1.005833844570e-02    14  8  9  1
  1.234638641499e-03    14  8  9  6
  2.918640055375e-03    14  8  11  9
 -5.615648649525e-03    14  8  12  10
 -5.615647764829e-03    14  8  13  9
 -5.298491541199e-04    14  8  14  4
  3.597287449096e-03    14  8  14  8
 -1.540310638600e-02    14  9  4  1
 -5.263085408894e-03    14  9  6  4
  5.534911315923e-03    14  9  8  1
  1.313548995082e-02    14  9  8  6
  1.867538717579e-02    14  9  9  2
 -5.725633782836e-03    14  9  9  5
  6.750404873819e-03    14  9  11  4
 -5.337060558384e-03    14  9  11  8
  1.309539894630e-02    14  9  12  3
 -4.483915168962e-03    14  9  12  7
  1.309540454212e-02    14  9  13  4
 -4.483937515123e-03    14  9  13  8
  8.347673391950e-03    14  9  14  9
 -1.540310638700e-02    14  10  3  1
 -5.263085408856e-03    14  10  6  3
  5.534911306812e-03    14  10  7  1
  1.313548994727e-02    14  10  7  6
  1.867538717694e-02    14  10  10  2
 -5.725633783429e-03    14  10  10  5
  6.750404874092e-03    14  10  11  3
 -5.337060554411e-03    14  10  11  7
  1.309539894697e-02    14  10  12  4
 -4.483915177098e-03    14  10  12  8
 -1.309540454281e-02    14  10  13  3
  4.483937507110e-03    14  10  13  7
  8.347673392429e-03    14  10  14  10
  3.248655709661e-03    14  11  2  1
 -7.386318360405e-03    14  11  5  1
  1.226296871310e-02    14  11  6  2
 -7.426658988069e-03    14  11  6  5
 -2.900355286648e-03    14  11  9  4
  3.594432514128e-03    14  11  9  8
 -2.900355286797e-03    14  11  10  3
  3.594432510219e-03    14  11  10  7
  6.807578922774e-03    14  11  11  2
 -4.884702122888e-03    14  11  11  5
  5.224060742969e-03    14  11  14  1
  3.854454932058e-03    14  11  14  6
  6.057313992172e-03    14  11  14  11
  2.699041015923e-03    14  12  9  3
 -1.591387092278e-03    14  12  9  7
  2.699041015972e-03    14  12  10  4
 -1.591387094776e-03    14  12  10  8
  2.753517138165e-03    14  12  12  2
 -1.285787520969e-03    14  12  12  5
  1.569793339296e-03    14  12  14  12
  2.699046957474e-03    14  13  9  4
 -1.591388846989e-03    14  13  9  8
 -2.699046957531e-03    14  13  10  3
  1.591388844649e-03    14  13  10  7
  2.753526106269e-03    14  13  13  2
 -1.285792545005e-03    14  13  13  5
  1.569797481272e-03    14  13  14  13
  3.158679294195e-01    14  14  1  1
  3.238733811059e-01    14  14  2  2
  3.096801456287e-01    14  14  3  3
  3.096801456288e-01    14  14  4  4
  2.406225214609e-02    14  14  5  2
  3.021185603019e-01    14  14  5  5
 -1.353109242638e-02    14  14  6  1
  2.904886900784e-01    14  14  6  6
  2.682909343881e-02    14  14  7  3
  2.807430300279e-01    14  14  7  7
  2.682909343721e-02    14  14  8  4
  2.807430300974e-01    14  14  8  8
  3.110977899266e-01    14  14  9  9
  3.110977899255e-01    14  14  10  10
  1.768282261054e-02    14  14  11  1
  1.101311513897e-02    14  14  11  6
  3.108966604465e-01    14  14  11  11
  2.980679715691e-01    14  14  12  12
  2.980678990783e-01    14  14  13  13
  1.693610234447e-03    14  14  14  2
 -2.153520283475e-02    14  14  14  5
  2.498862816600e-01    14  14  14  14
  9.151502223808e-03    15  1  1  1
 -1.236382174440e-02    15  1  2  2
  2.039397767420e-02    15  1  3  3
  2.039397767424e-02    15  1  4  4
 -1.542667478515e-02    15  1  5  2
 -6.677973801902e-04    15  1  5  5
 -8.883466934500e-03    15  1  6  1
  1.362033601124e-02    15  1  6  6
  1.352312993407e-02    15  1  7  3
  6.981974793599e-03    15  1  7  7
  1.352312993837e-02    15  1  8  4
  6.981974804045e-03    15  1  8  8
  1.208612868155e-03    15  1  9  9
  1.208612868459e-03    15  1  10  10
 -2.165053879750e-02    15  1  11  1
  1.086436263443e-02    15  1  11  6
 -1.584483398911e-02    15  1  11  11
  1.992244053780e-02    15  1  12  12
  1.992237197992e-02    15  1  13  13
  4.517957006218e-03    15  1  14  2
  9.504316780886e-04    15  1  14  5
  3.239476478595e-03    15  1  14  14
  2.339032092232e-02    15  1  15  1
 -3.503026387842e-02    15  2  2  1
 -3.222825480995e-02    15  2  5  1
  2.189648491807e-02    15  2  6  2
 -5.713855050941e-03    15  2  6  5
  1.630156130038e-02    15  2  9  4
  1.261500147912e-02    15  2  9  8
  1.630156129962e-02    15  2  10  3
  1.261500147512e-02    15  2  10  7
 -3.964032575640e-02    15  2  11  2
 -2.951557339339e-02    15  2  11  5
  9.144315824686e-03    15  2  14  1
 -2.524942125821e-04    15  2  14  6
  8.202886743598e-03    15  2  14  11
  3.819727769498e-02    15  2  15  2
  2.316602459639e-02    15  3  3  1
 -1.964012360119e-02    15  3  6  3
  1.796559818780e-02    15  3  7  1
 -5.863826805766e-03    15  3  7  6
 -6.998893620312e-03    15  3  10  2
 -4.031923882849e-03    15  3  10  5
 -6.938056757516e-03    15  3  11  3
 -9.495786021173e-03    15  3  11  7
 -1.466667311310e-02    15  3  12  4
 -1.143468369968e-02    15  3  12  8
  1.466663740380e-02    15  3  13  3
  1.143467988299e-02    15  3  13  7
  2.944048010088e-04    15  3  14  10
  1.655353193386e-02    15  3  15  3