&FCI NORBS=38, NELEC=14, MS2=0
ORBSYM=    1,-6,6,2,1,5,-5,1,7,-7,7,-7,1,5,-5,-6,6,2,1,-10,10,-8,8,-6,6,2,1,7,-7,1,-5,5,6,-6,2,2,6,-6
ISYM=1
KSYM
&END
      0.998186084078  1  1  1  1
     -0.213413719463  1  3  1  2
      0.213422713243  1  4  1  4
     -0.072962780214  1  5  1  1
      0.011190736550  1  5  1  5
     -0.067447740774  1  7  1  6
     -0.000069129114  1  8  1  1
     -0.000001888363  1  8  1  5
      0.067490136858  1  8  1  8
      0.067368232273  1  10  1  9
     -0.040225363862  1  11  1  10
     -0.040225363862  1  12  1  9
      0.029967004441  1  12  1  11
     -0.000646156375  1  13  1  1
      0.000118116031  1  13  1  5
     -0.040173188440  1  13  1  8
      0.029863962935  1  13  1  13
      0.040192989715  1  14  1  7
      0.040192989715  1  15  1  6
     -0.029903350819  1  15  1  14
      0.040718920053  1  16  1  3
      0.040718920053  1  17  1  2
     -0.011987941369  1  17  1  16
     -0.040661929126  1  18  1  4
      0.011950752514  1  18  1  18
      0.148115288697  1  19  1  1
     -0.025720836604  1  19  1  5
     -0.000202644213  1  19  1  8
     -0.000114195072  1  19  1  13
      0.062291437079  1  19  1  19
     -0.025379682523  1  21  1  20
      0.025382713021  1  23  1  22
     -0.000002880328  1  24  1  3
     -0.000005076086  1  24  1  17
     -0.000002880328  1  25  1  2
     -0.000005076086  1  25  1  16
     -0.025384472784  1  25  1  24
     -0.000054004935  1  26  1  4
     -0.000011713773  1  26  1  18
      0.025384975216  1  26  1  26
      0.037693678320  1  27  1  1
     -0.007855766708  1  27  1  5
      0.000000893443  1  27  1  8
     -0.000096593344  1  27  1  13
      0.020330365612  1  27  1  19
      0.007150348714  1  27  1  27
      0.005254793995  1  28  1  10
     -0.006907084413  1  28  1  12
      0.005254793995  1  29  1  9
     -0.006907084413  1  29  1  11
      0.002825507005  1  29  1  28
      0.000635198375  1  30  1  1
     -0.000111892796  1  30  1  5
      0.005262550363  1  30  1  8
     -0.006898647753  1  30  1  13
      0.000224403307  1  30  1  19
      0.000090936474  1  30  1  27
      0.002820969294  1  30  1  30
     -0.005253760116  1  31  1  6
      0.006896847845  1  31  1  14
     -0.005253760116  1  32  1  7
      0.006896847845  1  32  1  15
     -0.002819297527  1  32  1  31
      0.007600535356  1  33  1  2
     -0.002211271593  1  33  1  16
      0.000027379509  1  33  1  24
      0.007600535356  1  34  1  3
     -0.002211271593  1  34  1  17
      0.000027379509  1  34  1  25
     -0.000447974411  1  34  1  33
     -0.008153392141  1  35  1  4
      0.002364579143  1  35  1  18
     -0.000058346263  1  35  1  26
      0.000509637004  1  35  1  35
      0.004329062349  1  36  1  4
     -0.000688168074  1  36  1  18
     -0.000011935416  1  36  1  26
     -0.000218372714  1  36  1  35
      0.000251471938  1  36  1  36
     -0.004416546438  1  37  1  2
      0.000715125972  1  37  1  16
      0.000026824511  1  37  1  24
      0.000212436037  1  37  1  34
     -0.004416546438  1  38  1  3
      0.000715125972  1  38  1  17
      0.000026824511  1  38  1  25
      0.000212436037  1  38  1  33
     -0.000255857274  1  38  1  37
      0.213413719463  2  1  1  2
     -0.040718920053  2  1  1  16
      0.000002880328  2  1  1  24
     -0.007600535356  2  1  1  34
      0.004416546438  2  1  1  38
      0.963200543810  2  2  1  1
     -0.067332648340  2  2  1  5
     -0.035061788599  2  2  1  8
      0.020462236952  2  2  1  13
      0.135165476099  2  2  1  19
      0.033662870877  2  2  1  27
     -0.002264323832  2  2  1  30
      0.950346984427  2  2  2  2
     -0.085639160213  2  3  1  10
      0.051684190969  2  3  1  12
     -0.006966940969  2  3  1  29
      0.060593106638  2  4  1  7
     -0.036492716284  2  4  1  15
      0.004919925103  2  4  1  31
     -0.012654069187  2  5  1  2
      0.006851874682  2  5  1  16
     -0.000002643353  2  5  1  24
      0.001251091375  2  5  1  34
     -0.000142168910  2  5  1  38
     -0.028396794141  2  6  1  22
      0.136330576346  2  7  1  4
     -0.023169546450  2  7  1  18
     -0.015583354842  2  7  1  26
     -0.004691214676  2  7  1  35
      0.002971721764  2  7  1  36
      0.100030737345  2  7  2  7
     -0.078747506014  2  8  1  2
      0.013420803037  2  8  1  16
      0.022001503895  2  8  1  24
      0.002523965547  2  8  1  34
     -0.001765186408  2  8  1  38
      0.034759641116  2  9  1  20
     -0.192690415313  2  10  1  3
      0.032815455871  2  10  1  17
      0.008973132200  2  10  1  25
      0.006221675062  2  10  1  33
     -0.004272416492  2  10  1  37
      0.192690415313  2  10  2  1
     -0.007248938741  2  10  2  5
     -0.081668205710  2  10  2  8
     -0.017150582778  2  11  1  20
      0.105966830957  2  12  1  3
     -0.026164243434  2  12  1  17
     -0.004430174143  2  12  1  25
     -0.004851438903  2  12  1  33
      0.002036141560  2  12  1  37
     -0.105966830957  2  12  2  1
      0.012522244792  2  12  2  5
      0.042310193467  2  12  2  8
      0.043046783935  2  13  1  2
     -0.010605197669  2  13  1  16
     -0.010816380228  2  13  1  24
     -0.001957457391  2  13  1  34
      0.000839527771  2  13  1  38
      0.042085810635  2  13  2  10
     -0.029457920584  2  13  2  12
      0.013977381505  2  14  1  22
     -0.074808130658  2  15  1  4
      0.018445598972  2  15  1  18
      0.007683654863  2  15  1  26
      0.003657302529  2  15  1  35
     -0.001397510472  2  15  1  36
     -0.051693656270  2  15  2  7
      0.036195007566  2  15  2  15
     -0.125060967053  2  16  1  1
      0.017852888743  2  16  1  5
      0.005665672362  2  16  1  8
     -0.005270259030  2  16  1  13
     -0.039696815150  2  16  1  19
     -0.011550374711  2  16  1  27
      0.001527169975  2  16  1  30
     -0.119595129186  2  16  2  2
      0.030541079547  2  16  2  16
      0.013805807348  2  17  1  10
     -0.013332521331  2  17  1  12
      0.004161213553  2  17  1  29
     -0.009722832783  2  18  1  7
      0.009388050267  2  18  1  15
     -0.002932540791  2  18  1  31
      0.021799848267  2  19  1  2
     -0.014251655070  2  19  1  16
     -0.000044876637  2  19  1  24
     -0.002346087910  2  19  1  34
     -0.000417252885  2  19  1  38
      0.009757544288  2  19  2  10
     -0.024989931033  2  19  2  12
      0.061888290352  2  20  1  9
     -0.031817039793  2  20  1  11
      0.001559539729  2  20  1  28
     -0.078454377971  2  20  2  3
      0.008459767249  2  20  2  17
     -0.050560764819  2  22  1  6
      0.025932158571  2  22  1  14
     -0.001271524931  2  22  1  32
      0.045299015097  2  22  2  4
     -0.004846413426  2  22  2  18
     -0.000005877207  2  24  1  1
     -0.000004509067  2  24  1  5
      0.039175986703  2  24  1  8
     -0.020067488441  2  24  1  13
     -0.000085666098  2  24  1  19
     -0.000000783835  2  24  1  27
      0.000988708841  2  24  1  30
     -0.020265559867  2  24  2  2
      0.002191185163  2  24  2  16
      0.029501297416  2  24  2  24
      0.015980268408  2  25  1  10
     -0.008216724046  2  25  1  12
      0.000403426531  2  25  1  29
      0.019041307939  2  25  2  20
     -0.027707118308  2  26  1  7
      0.014218616916  2  26  1  15
     -0.000701551448  2  26  1  31
     -0.026936295284  2  26  2  22
      0.003472743575  2  27  1  2
     -0.003673173331  2  27  1  16
     -0.000001033104  2  27  1  24
     -0.000479226353  2  27  1  34
     -0.000442655190  2  27  1  38
     -0.000023221694  2  27  2  10
     -0.005939559554  2  27  2  12
      0.000431890895  2  28  1  20
     -0.010610795406  2  29  1  3
      0.006531934773  2  29  1  17
      0.000113110659  2  29  1  25
      0.001134974801  2  29  1  33
      0.000051436237  2  29  1  37
      0.010610795406  2  29  2  1
     -0.005315707326  2  29  2  5
     -0.002963009665  2  29  2  8
      0.006050854090  2  29  2  13
      0.012456921555  2  29  2  19
      0.003843614685  2  29  2  27
     -0.004239095671  2  30  1  2
      0.002602652091  2  30  1  16
      0.000275427759  2  30  1  24
      0.000452349090  2  30  1  34
      0.000019253087  2  30  1  38
     -0.002912644425  2  30  2  10
      0.005991357409  2  30  2  12
     -0.002821933212  2  30  2  29
      0.007494675141  2  31  1  4
     -0.004605379875  2  31  1  18
     -0.000201160182  2  31  1  26
     -0.000858882796  2  31  1  35
     -0.000045610118  2  31  1  36
      0.003617408684  2  31  2  7
     -0.007466288264  2  31  2  15
      0.003517298440  2  31  2  31
     -0.000352140388  2  32  1  22
      0.002716810765  2  33  1  10
     -0.002549861274  2  33  1  12
      0.000753009787  2  33  1  29
      0.001743060768  2  33  2  20
     -0.018750677753  2  34  1  1
      0.002800414983  2  34  1  5
      0.001077731263  2  34  1  8
     -0.000996155561  2  34  1  13
     -0.005932635693  2  34  1  19
     -0.001584411023  2  34  1  27
      0.000280539589  2  34  1  30
     -0.017934152415  2  34  2  2
      0.004954296210  2  34  2  16
      0.000423797339  2  34  2  24
      0.000901185967  2  34  2  34
     -0.002003574546  2  35  1  7
      0.001899120770  2  35  1  15
     -0.000567621316  2  35  1  31
     -0.001024751952  2  35  2  22
      0.001471715626  2  36  1  7
     -0.000797020468  2  36  1  15
      0.000022396263  2  36  1  31
      0.001181611870  2  36  2  22
     -0.002111353302  2  37  1  10
      0.001158189823  2  37  1  12
     -0.000040419657  2  37  1  29
     -0.002066594420  2  37  2  20
      0.006445229286  2  38  1  1
     -0.000317735829  2  38  1  5
     -0.000897601301  2  38  1  8
      0.000489921672  2  38  1  13
     -0.000288493329  2  38  1  19
     -0.000521870178  2  38  1  27
     -0.000018050445  2  38  1  30
      0.006688539067  2  38  2  2
     -0.001023163774  2  38  2  16
     -0.000559552789  2  38  2  24
     -0.000324922515  2  38  2  34
      0.000426952130  2  38  2  38
      0.213413719463  3  1  1  3
     -0.040718920053  3  1  1  17
      0.000002880328  3  1  1  25
     -0.007600535356  3  1  1  33
      0.004416546438  3  1  1  37
     -0.213413719463  3  1  2  1
      0.012654069187  3  1  2  5
      0.078747506014  3  1  2  8
     -0.043046783935  3  1  2  13
     -0.021799848267  3  1  2  19
     -0.003472743575  3  1  2  27
      0.004239095671  3  1  2  30
     -0.085639160213  3  2  1  9
      0.051684190969  3  2  1  11
     -0.006966940969  3  2  1  28
      0.112141090662  3  2  2  3
     -0.019481848061  3  2  2  17
     -0.020257910997  3  2  2  25
     -0.003740177426  3  2  2  33
      0.002604413913  3  2  2  37
      0.963200543810  3  3  1  1
     -0.067332648340  3  3  1  5
     -0.035061788599  3  3  1  8
      0.020462236952  3  3  1  13
      0.135165476099  3  3  1  19
      0.033662870877  3  3  1  27
     -0.002264323832  3  3  1  30
      0.950346984427  3  3  2  2
     -0.119595129186  3  3  2  16
     -0.020265559867  3  3  2  24
     -0.017934152415  3  3  2  34
      0.006688539067  3  3  2  38
      0.950346984427  3  3  3  3
      0.060593106638  3  4  1  6
     -0.036492716284  3  4  1  14
      0.004919925103  3  4  1  32
     -0.056072171450  3  4  2  4
      0.009696644094  3  4  2  18
      0.024825555053  3  4  2  26
      0.001954648561  3  4  2  35
     -0.001280682577  3  4  2  36
     -0.012654069187  3  5  1  3
      0.006851874682  3  5  1  17
     -0.000002643353  3  5  1  25
      0.001251091375  3  5  1  33
     -0.000142168910  3  5  1  37
      0.012654069187  3  5  2  1
     -0.005446918905  3  5  2  5
     -0.002966672249  3  5  2  8
      0.005059337236  3  5  2  13
      0.011767712408  3  5  2  19
      0.003262802136  3  5  2  27
     -0.002116126271  3  5  2  30
      0.136330576346  3  6  1  4
     -0.023169546450  3  6  1  18
     -0.015583354842  3  6  1  26
     -0.004691214676  3  6  1  35
      0.002971721764  3  6  1  36
      0.100030737345  3  6  2  7
     -0.051693656270  3  6  2  15
      0.003617408684  3  6  2  31
      0.100030737345  3  6  3  6
     -0.028396794141  3  7  1  23
      0.032942921320  3  7  2  6
     -0.018068731370  3  7  2  14
      0.001633373157  3  7  2  32
     -0.078747506014  3  8  1  3
      0.013420803037  3  8  1  17
      0.022001503895  3  8  1  25
      0.002523965547  3  8  1  33
     -0.001765186408  3  8  1  37
      0.078747506014  3  8  2  1
     -0.002966672249  3  8  2  5
     -0.049853628514  3  8  2  8
      0.026233425612  3  8  2  13
      0.004042586059  3  8  2  19
     -0.000005428627  3  8  2  27
     -0.002012766632  3  8  2  30
     -0.192690415313  3  9  1  2
      0.032815455871  3  9  1  16
      0.008973132200  3  9  1  24
      0.006221675062  3  9  1  34
     -0.004272416492  3  9  1  38
     -0.183400734493  3  9  2  10
      0.094460069536  3  9  2  12
     -0.006413166632  3  9  2  29
      0.192690415313  3  9  3  1
     -0.007248938741  3  9  3  5
     -0.081668205710  3  9  3  8
      0.034759641116  3  10  1  21
     -0.049361726347  3  10  2  9
      0.027128208348  3  10  2  11
     -0.002448397235  3  10  2  28
      0.105966830957  3  11  1  2
     -0.026164243434  3  11  1  16
     -0.004430174143  3  11  1  24
     -0.004851438903  3  11  1  34
      0.002036141560  3  11  1  38
      0.094460069536  3  11  2  10
     -0.065269365052  3  11  2  12
      0.013089326292  3  11  2  29
     -0.105966830957  3  11  3  1
      0.012522244792  3  11  3  5
      0.042310193467  3  11  3  8
     -0.017150582778  3  12  1  21
      0.027128208348  3  12  2  9
     -0.021867877977  3  12  2  11
      0.005582330035  3  12  2  28
      0.043046783935  3  13  1  3
     -0.010605197669  3  13  1  17
     -0.010816380228  3  13  1  25
     -0.001957457391  3  13  1  33
      0.000839527771  3  13  1  37
     -0.043046783935  3  13  2  1
      0.005059337236  3  13  2  5
      0.026233425612  3  13  2  8
     -0.019226145172  3  13  2  13
     -0.010120935919  3  13  2  19
     -0.002385436156  3  13  2  27
      0.004283989819  3  13  2  30
      0.042085810635  3  13  3  9
     -0.029457920584  3  13  3  11
     -0.074808130658  3  14  1  4
      0.018445598972  3  14  1  18
      0.007683654863  3  14  1  26
      0.003657302529  3  14  1  35
     -0.001397510472  3  14  1  36
     -0.051693656270  3  14  2  7
      0.036195007566  3  14  2  15
     -0.007466288264  3  14  2  31
     -0.051693656270  3  14  3  6
      0.036195007566  3  14  3  14
      0.013977381505  3  15  1  23
     -0.018068731370  3  15  2  6
      0.014550940310  3  15  2  14
     -0.003717245363  3  15  2  32
      0.013805807348  3  16  1  9
     -0.013332521331  3  16  1  11
      0.004161213553  3  16  1  28
     -0.019481848061  3  16  2  3
      0.008358013323  3  16  2  17
      0.002186770148  3  16  2  25
      0.001655644392  3  16  2  33
     -0.000603493959  3  16  2  37
     -0.125060967053  3  17  1  1
      0.017852888743  3  17  1  5
      0.005665672362  3  17  1  8
     -0.005270259030  3  17  1  13
     -0.039696815150  3  17  1  19
     -0.011550374711  3  17  1  27
      0.001527169975  3  17  1  30
     -0.119595129186  3  17  2  2
      0.030541079547  3  17  2  16
      0.002191185163  3  17  2  24
      0.004954296210  3  17  2  34
     -0.001023163774  3  17  2  38
     -0.119595129186  3  17  3  3
      0.030541079547  3  17  3  17
     -0.009722832783  3  18  1  6
      0.009388050267  3  18  1  14
     -0.002932540791  3  18  1  32
      0.009696644094  3  18  2  4
     -0.004155749018  3  18  2  18
     -0.002654410862  3  18  2  26
     -0.000874906845  3  18  2  35
      0.000290668310  3  18  2  36
      0.021799848267  3  19  1  3
     -0.014251655070  3  19  1  17
     -0.000044876637  3  19  1  25
     -0.002346087910  3  19  1  33
     -0.000417252885  3  19  1  37
     -0.021799848267  3  19  2  1
      0.011767712408  3  19  2  5
      0.004042586059  3  19  2  8
     -0.010120935919  3  19  2  13
     -0.028650553272  3  19  2  19
     -0.009286474626  3  19  2  27
      0.004969053931  3  19  2  30
      0.009757544288  3  19  3  9
     -0.024989931033  3  19  3  11
      0.023107762696  3  20  2  21
      0.061888290352  3  21  1  10
     -0.031817039793  3  21  1  12
      0.001559539729  3  21  1  29
      0.062190982518  3  21  2  20
     -0.078454377971  3  21  3  2
      0.008459767249  3  21  3  16
     -0.017332035017  3  22  2  23
     -0.050560764819  3  23  1  7
      0.025932158571  3  23  1  15
     -0.001271524931  3  23  1  31
     -0.043389857544  3  23  2  22
      0.045299015097  3  23  3  4
     -0.004846413426  3  23  3  18
      0.015980268408  3  24  1  9
     -0.008216724046  3  24  1  11
      0.000403426531  3  24  1  28
     -0.020257910997  3  24  2  3
      0.002186770148  3  24  2  17
      0.016471713324  3  24  2  25
      0.000437616588  3  24  2  33
     -0.000545803782  3  24  2  37
      0.019041307939  3  24  3  21
     -0.000005877207  3  25  1  1
     -0.000004509067  3  25  1  5
      0.039175986703  3  25  1  8
     -0.020067488441  3  25  1  13
     -0.000085666098  3  25  1  19
     -0.000000783835  3  25  1  27
      0.000988708841  3  25  1  30
     -0.020265559867  3  25  2  2
      0.002191185163  3  25  2  16
      0.029501297416  3  25  2  24
      0.000423797339  3  25  2  34
     -0.000559552789  3  25  2  38
     -0.020265559867  3  25  3  3
      0.002191185163  3  25  3  17
      0.029501297416  3  25  3  25
     -0.027707118308  3  26  1  6
      0.014218616916  3  26  1  14
     -0.000701551448  3  26  1  32
      0.024825555053  3  26  2  4
     -0.002654410862  3  26  2  18
     -0.020534708313  3  26  2  26
     -0.000548633057  3  26  2  35
      0.000650195827  3  26  2  36
     -0.026936295284  3  26  3  23
      0.003472743575  3  27  1  3
     -0.003673173331  3  27  1  17
     -0.000001033104  3  27  1  25
     -0.000479226353  3  27  1  33
     -0.000442655190  3  27  1  37
     -0.003472743575  3  27  2  1
      0.003262802136  3  27  2  5
     -0.000005428627  3  27  2  8
     -0.002385436156  3  27  2  13
     -0.009286474626  3  27  2  19
     -0.003519828134  3  27  2  27
      0.001526697950  3  27  2  30
     -0.000023221694  3  27  3  9
     -0.005939559554  3  27  3  11
     -0.010610795406  3  28  1  2
      0.006531934773  3  28  1  16
      0.000113110659  3  28  1  24
      0.001134974801  3  28  1  34
      0.000051436237  3  28  1  38
     -0.006413166632  3  28  2  10
      0.013089326292  3  28  2  12
     -0.006129122044  3  28  2  29
      0.010610795406  3  28  3  1
     -0.005315707326  3  28  3  5
     -0.002963009665  3  28  3  8
      0.006050854090  3  28  3  13
      0.012456921555  3  28  3  19
      0.003843614685  3  28  3  27
      0.000431890895  3  29  1  21
     -0.002448397235  3  29  2  9
      0.005582330035  3  29  2  11
     -0.002766651105  3  29  2  28
     -0.004239095671  3  30  1  3
      0.002602652091  3  30  1  17
      0.000275427759  3  30  1  25
      0.000452349090  3  30  1  33
      0.000019253087  3  30  1  37
      0.004239095671  3  30  2  1
     -0.002116126271  3  30  2  5
     -0.002012766632  3  30  2  8
      0.004283989819  3  30  2  13
      0.004969053931  3  30  2  19
      0.001526697950  3  30  2  27
     -0.002049490815  3  30  2  30
     -0.002912644425  3  30  3  9
      0.005991357409  3  30  3  11
     -0.002821933212  3  30  3  28
     -0.000352140388  3  31  1  23
      0.001633373157  3  31  2  6
     -0.003717245363  3  31  2  14
      0.001840122471  3  31  2  32
      0.007494675141  3  32  1  4
     -0.004605379875  3  32  1  18
     -0.000201160182  3  32  1  26
     -0.000858882796  3  32  1  35
     -0.000045610118  3  32  1  36
      0.003617408684  3  32  2  7
     -0.007466288264  3  32  2  15
      0.003517298440  3  32  2  31
      0.003617408684  3  32  3  6
     -0.007466288264  3  32  3  14
      0.003517298440  3  32  3  32
     -0.018750677753  3  33  1  1
      0.002800414983  3  33  1  5
      0.001077731263  3  33  1  8
     -0.000996155561  3  33  1  13
     -0.005932635693  3  33  1  19
     -0.001584411023  3  33  1  27
      0.000280539589  3  33  1  30
     -0.017934152415  3  33  2  2
      0.004954296210  3  33  2  16
      0.000423797339  3  33  2  24
      0.000901185967  3  33  2  34
     -0.000324922515  3  33  2  38
     -0.017934152415  3  33  3  3
      0.004954296210  3  33  3  17
      0.000423797339  3  33  3  25
      0.000901185967  3  33  3  33
      0.002716810765  3  34  1  9
     -0.002549861274  3  34  1  11
      0.000753009787  3  34  1  28
     -0.003740177426  3  34  2  3
      0.001655644392  3  34  2  17
      0.000437616588  3  34  2  25
      0.000374660105  3  34  2  33
     -0.000200383766  3  34  2  37
      0.001743060768  3  34  3  21
     -0.002003574546  3  35  1  6
      0.001899120770  3  35  1  14
     -0.000567621316  3  35  1  32
      0.001954648561  3  35  2  4
     -0.000874906845  3  35  2  18
     -0.000548633057  3  35  2  26
     -0.000208340083  3  35  2  35
      0.000101587932  3  35  2  36
     -0.001024751952  3  35  3  23
      0.001471715626  3  36  1  6
     -0.000797020468  3  36  1  14
      0.000022396263  3  36  1  32
     -0.001280682577  3  36  2  4
      0.000290668310  3  36  2  18
      0.000650195827  3  36  2  26
      0.000101587932  3  36  2  35
     -0.000120534595  3  36  2  36
      0.001181611870  3  36  3  23
      0.006445229286  3  37  1  1
     -0.000317735829  3  37  1  5
     -0.000897601301  3  37  1  8
      0.000489921672  3  37  1  13
     -0.000288493329  3  37  1  19
     -0.000521870178  3  37  1  27
     -0.000018050445  3  37  1  30
      0.006688539067  3  37  2  2
     -0.001023163774  3  37  2  16
     -0.000559552789  3  37  2  24
     -0.000324922515  3  37  2  34
      0.000426952130  3  37  2  38
      0.006688539067  3  37  3  3
     -0.001023163774  3  37  3  17
     -0.000559552789  3  37  3  25
     -0.000324922515  3  37  3  33
      0.000426952130  3  37  3  37
     -0.002111353302  3  38  1  9
      0.001158189823  3  38  1  11
     -0.000040419657  3  38  1  28
      0.002604413913  3  38  2  3
     -0.000603493959  3  38  2  17
     -0.000545803782  3  38  2  25
     -0.000200383766  3  38  2  33
      0.000245143298  3  38  2  37
     -0.002066594420  3  38  3  21
      0.213422713243  4  1  1  4
     -0.040661929126  4  1  1  18
     -0.000054004935  4  1  1  26
     -0.008153392141  4  1  1  35
      0.004329062349  4  1  1  36
      0.136330576346  4  1  2  7
     -0.074808130658  4  1  2  15
      0.007494675141  4  1  2  31
      0.136330576346  4  1  3  6
     -0.074808130658  4  1  3  14
      0.007494675141  4  1  3  32
      0.213422713243  4  1  4  1
     -0.060593106638  4  2  1  6
      0.036492716284  4  2  1  14
     -0.004919925103  4  2  1  32
      0.056072171450  4  2  2  4
     -0.009696644094  4  2  2  18
     -0.024825555053  4  2  2  26
     -0.001954648561  4  2  2  35
      0.001280682577  4  2  2  36
     -0.045299015097  4  2  3  23
     -0.060593106638  4  3  1  7
      0.036492716284  4  3  1  15
     -0.004919925103  4  3  1  31
     -0.045299015097  4  3  2  22
      0.056072171450  4  3  3  4
     -0.009696644094  4  3  3  18
     -0.024825555053  4  3  3  26
     -0.001954648561  4  3  3  35
      0.001280682577  4  3  3  36
     -0.056072171450  4  3  4  2
      0.963156648334  4  4  1  1
     -0.067345724694  4  4  1  5
      0.069911634739  4  4  1  8
     -0.042685418195  4  4  1  13
      0.134869228605  4  4  1  19
      0.033672171311  4  4  1  27
      0.006265565189  4  4  1  30
      0.894233971053  4  4  2  2
     -0.109836228581  4  4  2  16
      0.040505205588  4  4  2  24
     -0.016117486778  4  4  2  34
      0.005332387499  4  4  2  38
      0.894233971053  4  4  3  3
     -0.109836228581  4  4  3  17
      0.040505205588  4  4  3  25
     -0.016117486778  4  4  3  33
      0.005332387499  4  4  3  37
      1.006305582146  4  4  4  4
     -0.012691203252  4  5  1  4
      0.006850267241  4  5  1  18
      0.000006919368  4  5  1  26
      0.001340530953  4  5  1  35
     -0.000128875583  4  5  1  36
     -0.005153991945  4  5  2  7
      0.008868447365  4  5  2  15
     -0.003757220402  4  5  2  31
     -0.005153991945  4  5  3  6
      0.008868447365  4  5  3  14
     -0.003757220402  4  5  3  32
     -0.012691203252  4  5  4  1
      0.005457199035  4  5  4  5
     -0.136324617014  4  6  1  2
      0.023213796557  4  6  1  16
     -0.025400217065  4  6  1  24
      0.004436572290  4  6  1  34
     -0.002988726411  4  6  1  38
     -0.118108109161  4  6  2  10
      0.060433488624  4  6  2  12
     -0.003962223288  4  6  2  29
      0.136324617014  4  6  3  1
     -0.005136710024  4  6  3  5
     -0.029240782742  4  6  3  8
      0.014144455767  4  6  3  13
      0.006844669814  4  6  3  19
     -0.000012084539  4  6  3  27
     -0.000645313916  4  6  3  30
     -0.136324617014  4  7  1  3
      0.023213796557  4  7  1  17
     -0.025400217065  4  7  1  25
      0.004436572290  4  7  1  33
     -0.002988726411  4  7  1  37
      0.136324617014  4  7  2  1
     -0.005136710024  4  7  2  5
     -0.029240782742  4  7  2  8
      0.014144455767  4  7  2  13
      0.006844669814  4  7  2  19
     -0.000012084539  4  7  2  27
     -0.000645313916  4  7  2  30
     -0.118108109161  4  7  3  9
      0.060433488624  4  7  3  11
     -0.003962223288  4  7  3  28
     -0.116495912488  4  7  4  6
      0.157430957002  4  8  1  4
     -0.026808313370  4  8  1  18
      0.026912083514  4  8  1  26
     -0.005526977989  4  8  1  35
      0.003412341987  4  8  1  36
      0.086980286705  4  8  2  7
     -0.044042004446  4  8  2  15
      0.002761023808  4  8  2  31
      0.086980286705  4  8  3  6
     -0.044042004446  4  8  3  14
      0.002761023808  4  8  3  32
      0.157430957002  4  8  4  1
     -0.005960252382  4  8  4  5
      0.149875868495  4  8  4  8
      0.020070009593  4  9  1  22
     -0.023281980873  4  9  3  7
      0.012766763354  4  9  3  15
     -0.001152551962  4  9  3  31
      0.020070009593  4  10  1  23
     -0.023281980873  4  10  2  6
      0.012766763354  4  10  2  14
     -0.001152551962  4  10  2  32
      0.016454239086  4  10  4  9
     -0.009900797101  4  11  1  22
      0.012795921108  4  11  3  7
     -0.010298601983  4  11  3  15
      0.002628663731  4  11  3  31
     -0.009041175252  4  11  4  10
     -0.009900797101  4  12  1  23
      0.012795921108  4  12  2  6
     -0.010298601983  4  12  2  14
      0.002628663731  4  12  2  32
     -0.009041175252  4  12  4  9
      0.007288964444  4  12  4  11
     -0.086387115020  4  13  1  4
      0.021371148662  4  13  1  18
     -0.013211982514  4  13  1  26
      0.004284938135  4  13  1  35
     -0.001600927878  4  13  1  36
     -0.044026004968  4  13  2  7
      0.029242514324  4  13  2  15
     -0.005436499464  4  13  2  31
     -0.044026004968  4  13  3  6
      0.029242514324  4  13  3  14
     -0.005436499464  4  13  3  32
     -0.086387115020  4  13  4  1
      0.010292286084  4  13  4  5
     -0.077917097804  4  13  4  8
      0.055619451917  4  13  4  13
      0.074797330943  4  14  1  2
     -0.018480449988  4  14  1  16
      0.012498630999  4  14  1  24
     -0.003444021433  4  14  1  34
      0.001420305063  4  14  1  38
      0.060280307224  4  14  2  10
     -0.040944354039  4  14  2  12
      0.007939729019  4  14  2  29
     -0.074797330943  4  14  3  1
      0.008857750539  4  14  3  5
      0.014208104599  4  14  3  8
     -0.008211020900  4  14  3  13
     -0.017609207524  4  14  3  19
     -0.004208080487  4  14  3  27
      0.001016073732  4  14  3  30
      0.060713068748  4  14  4  7
      0.074797330943  4  15  1  3
     -0.018480449988  4  15  1  17
      0.012498630999  4  15  1  25
     -0.003444021433  4  15  1  33
      0.001420305063  4  15  1  37
     -0.074797330943  4  15  2  1
      0.008857750539  4  15  2  5
      0.014208104599  4  15  2  8
     -0.008211020900  4  15  2  13
     -0.017609207524  4  15  2  19
     -0.004208080487  4  15  2  27
      0.001016073732  4  15  2  30
      0.060280307224  4  15  3  9
     -0.040944354039  4  15  3  11
      0.007939729019  4  15  3  28
      0.060713068748  4  15  4  6
     -0.043462977460  4  15  4  14
      0.009759374336  4  16  1  6
     -0.009416977023  4  16  1  14
      0.002939392636  4  16  1  32
     -0.009731061249  4  16  2  4
      0.004167473924  4  16  2  18
      0.002678277263  4  16  2  26
      0.000877686665  4  16  2  35
     -0.000292338822  4  16  2  36
      0.004875381687  4  16  3  23
      0.009731061249  4  16  4  3
      0.009759374336  4  17  1  7
     -0.009416977023  4  17  1  15
      0.002939392636  4  17  1  31
      0.004875381687  4  17  2  22
     -0.009731061249  4  17  3  4
      0.004167473924  4  17  3  18
      0.002678277263  4  17  3  26
      0.000877686665  4  17  3  35
     -0.000292338822  4  17  3  36
      0.009731061249  4  17  4  2
     -0.004179255121  4  17  4  16
     -0.124931919152  4  18  1  1
      0.017834845291  4  18  1  5
     -0.011308932241  4  18  1  8
      0.011052534273  4  18  1  13
     -0.039558893747  4  18  1  19
     -0.011545312214  4  18  1  27
     -0.003559629962  4  18  1  30
     -0.109714676013  4  18  2  2
      0.026324980559  4  18  2  16
     -0.004385785392  4  18  2  24
      0.004125824931  4  18  2  34
     -0.000713094894  4  18  2  38
     -0.109714676013  4  18  3  3
      0.026324980559  4  18  3  17
     -0.004385785392  4  18  3  25
      0.004125824931  4  18  3  33
     -0.000713094894  4  18  3  37
     -0.129241178773  4  18  4  4
      0.034634969767  4  18  4  18
      0.021244227347  4  19  1  4
     -0.014067756669  4  19  1  18
     -0.000075109710  4  19  1  26
     -0.002490057086  4  19  1  35
     -0.000453222816  4  19  1  36
      0.006610873006  4  19  2  7
     -0.017433783783  4  19  2  15
      0.008738267613  4  19  2  31
      0.006610873006  4  19  3  6
     -0.017433783783  4  19  3  14
      0.008738267613  4  19  3  32
      0.021244227347  4  19  4  1